
                                 *****************
                                 * O   R   C   A *
                                 *****************

                                            #,                                       
                                            ###                                      
                                            ####                                     
                                            #####                                    
                                            ######                                   
                                           ########,                                 
                                     ,,################,,,,,                         
                               ,,#################################,,                 
                          ,,##########################################,,             
                       ,#########################################, ''#####,          
                    ,#############################################,,   '####,        
                  ,##################################################,,,,####,       
                ,###########''''           ''''###############################       
              ,#####''   ,,,,##########,,,,          '''####'''          '####       
            ,##' ,,,,###########################,,,                        '##       
           ' ,,###''''                  '''############,,,                           
         ,,##''                                '''############,,,,        ,,,,,,###''
      ,#''                                            '''#######################'''  
     '                                                          ''''####''''         
             ,#######,   #######,   ,#######,      ##                                
            ,#'     '#,  ##    ##  ,#'     '#,    #''#        ,####,    ,#,          
            ##       ##  ##   ,#'  ##            #'  '#       #'       ,# #          
            ##       ##  #######   ##           ,######,      #####,      #          
            '#,     ,#'  ##    ##  '#,     ,#' ,#      #,     #,   #      #          
             '#######'   ##     ##  '#######'  #'      '#     '####' #    #          



                #########################################################
                #                        -***-                          #
                #          Department of theory and spectroscopy        #
                #                                                       #
                #                      Frank Neese                      #
                #                                                       #
                #     Directorship, Architecture, Infrastructure        #
                #                    SHARK, DRIVERS                     #
                #        Core code/Algorithms in most modules           #
                #                                                       #
                #        Max Planck Institute fuer Kohlenforschung      #
                #                Kaiser Wilhelm Platz 1                 #
                #                 D-45470 Muelheim/Ruhr                 #
                #                      Germany                          #
                #                                                       #
                #                  All rights reserved                  #
                #                        -***-                          #
                #########################################################


                         Program Version 6.1.0  -  RELEASE   -
                                (GIT: $679e74b$)
                          ($2025-06-10 18:02:51 +0200$)


 With contributions from (in alphabetic order):
[Max-Planck-Institut fuer Kohlenforschung]                               
  Daniel Aravena         : Magnetic Suceptibility                        
  Michael Atanasov       : Ab Initio Ligand Field Theory (pilot matlab implementation)
  Alexander A. Auer      : GIAO ZORA, VPT2 properties, NMR spectrum      
  Ute Becker             : All parallelization in ORCA, NUMFREQ, NUMCALC 
  Giovanni Bistoni       : ED, misc. LED, open-shell LED, HFLD           
  Dmytro Bykov           : pre 5.0 version of the SCF Hessian            
  Marcos Casanova-Páez   : Triplet and SCS-CIS(D). UHF-(DLPNO)-IP/EA/STEOM-CCSD. UHF-CVS-IP/STEOM-CCSD   
  Vijay G. Chilkuri      : MRCI spin determinant printing, contributions to CSF-ICE 
  Pauline Colinet        : FMM embedding                                 
  Dipayan Datta          : RHF DLPNO-CCSD density                        
  Achintya Kumar Dutta   : EOM-CC, STEOM-CC                              
  Nicolas Foglia         : Exact transition moments, OPA infrastructure, MCD improvements    
  Dmitry Ganyushin       : Spin-Orbit,Spin-Spin,Magnetic field MRCI      
  Miquel Garcia-Rates    : C-PCM and meta-GGA Hessian, CCSD/C-PCM, Gaussian charge scheme 
  Tiago L. C. Gouveia    : GS-ROHF, GS-ROCIS                             
  Yang Guo               : DLPNO-NEVPT2, F12-NEVPT2, CIM, IAO-localization        
  Andreas Hansen         : Spin unrestricted coupled pair/coupled cluster methods 
  Ingolf Harden          : AUTO-CI MPn and infrastructure                
  Benjamin Helmich-Paris : MC-RPA, TRAH-(SCF,CASSCF), AVAS, COSX integrals, SCF dyn. polar., MC-PDFT, srDFT 
  Lee Huntington         : MR-EOM, pCC                                   
  Robert Izsak           : Overlap fitted RIJCOSX, COSX-SCS-MP3, EOM     
  Riya Kayal             : Wick's Theorem for AUTO-CI, AUTO-CI UHF-CCSDT 
  Emily Kempfer          : AUTO-CI RHF CISDT and CCSDT, approximate NEVPT4
  Christian Kollmar      : KDIIS, OOCD, Brueckner-CCSD(T), CCSD density, CASPT2, CASPT2-K, improved NEVPT2 
  Axel Koslowski         : Symmetry handling                             
  Simone Kossmann        : meta-GGA functionals, TD-DFT gradient, OOMP2, (MP2 Hessian; deprecated post 5.0) 
  Lucas Lang             : DCDCAS, Hyperfine gauge corrections, ICE-SOC+SSC
  Marvin Lechner         : AUTO-CI (C++ implementation), FIC-MRCC        
  Spencer Leger          : CASSCF response                               
  Dagmar Lenk            : GEPOL surface, SMD, ORCA-2-JSON               
  Dimitrios Liakos       : Extrapolation schemes; Compound Job, Property file
  Dimitrios Manganas     : Further ROCIS development; embedding schemes. LFT, Crystal Embedding 
  Dimitrios Pantazis     : SARC Basis sets                               
  Anastasios Papadopoulos: AUTO-CI, single reference methods and gradients 
  Taras Petrenko         : pre 6.0 DFT Hessian and TD-DFT gradient,  ECA, NRVS 
  Petra Pikulova         : Analytic Raman intensities                    
  Peter Pinski           : DLPNO-MP2, DLPNO-MP2 Gradient                 
  Shashank Vittal Rao    : ES-AILFT, MagRelax                            
  Christoph Reimann      : Effective Core Potentials                     
  Marius Retegan         : Local ZFS, SOC                                
  Christoph Riplinger    : Optimizer, TS searches, QM/MM, DLPNO-CCSD(T), (RO)-DLPNO pert. Triples 
  Michael Roemelt        : Original ROCIS implementation, recursive CI coupling coefficients
  Masaaki Saitow         : Open-shell DLPNO-CCSD energy and density      
  Barbara Sandhoefer     : DKH picture change effects                    
  Yorick L. A. Schmerwitz: GMF and freeze-and-release deltaSCF, NEB S-IDPP initial path                    
  Kantharuban Sivalingam : CASSCF convergence/infrastructure, NEVPT2, NEVPT3, NEVPT4(SD), FIC-MRCI and CEPA variants
  Bernardo de Souza      : ESD, SOC TD-DFT                               
  Georgi L. Stoychev     : AutoAux, RI-MP2 NMR, DLPNO-MP2 response, X2C  
  Van Anh Tran           : RI-MP2 g-tensors                              
  Willem Van den Heuvel  : Paramagnetic NMR                              
  Zikuan Wang            : NOTCH, Electric field optimization            
  Frank Wennmohs         : Technical directorship and infrastructure     
  Hang Xu                : AUTO-CI-Response properties                   
                                                                         
[FACCTs GmbH]                                                            
  Markus Bursch, Nicolas Foglia, Miquel Garcia-Rates, Ingolf Harden, Hagen Neugebauer, Anastasios Papadopoulos, 
  Christoph Riplinger, Bernardo de Souza, Georgi L. Stoychev                                                    
                                                                 
  APM, various basis sets, CI-OPT, improved COSX, DLPNO-Multilevel,           
  DOCKER, DRACO, updates on ESD, Fragmentator, GOAT, IRC, LR-CPCM, L-BFGS, MBIS, meta-GGA TD-DFT gradient, ML-optimized integration grids, 
  MM, NACMEs, nearIR, NEB, NEB-TS, NL-DFT gradient (VV10), 2- and 3-layer-ONIOM, interface openCOSMO-RS, QMMM,   
  Crystal-QMMM, RESP, rigid body optimization, SF, symmetry and pop. for TD-DFT, various functionals, SOLVATOR                                   
                                                                         
[Other institutions]                                                     
  V. Asgeirsson          : NEB                                           
  Christoph Bannwarth    : sTDA-DFT, sTD-DFT, PBEh-3c, B97-3c, D3        
  Giovanni Bistoni       : ETS/NOCV, ADLD/ADEX, COVALED                  
  Martin Brehm           : Molecular dynamics                            
  Ronald Cardenas        : ETS/NOCV                                      
  Martina Colucci        : COVALED                                       
  Sebastian Ehlert       : rSCAN, r2SCAN, r2SCAN-3c, D4, dhf basis sets  
  Marvin Friede          : D4 for Fr, Ra, Ac-Lr                          
  Lars Goerigk           : TD-DFT with DH, B97 family of functionals     
  Stefan Grimme          : VdW corrections, initial TS optimization, DFT functionals, gCP, sTDA/sTD-DF 
  Waldemar Hujo          : DFT-NL                                        
  H. Jonsson             : NEB                                           
  Holger Kruse           : gCP                                           
  Marcel Mueller         : wB97X-3c, vDZP basis set                      
  Hagen Neugebauer       : wr2SCAN, Native XTB                           
  Gianluca Regni         : ADLD/ADEX                                     
  Tobias Risthaus        : pre 6.0 range-separated hybrid DFT and stability analysis
  Lukas Wittmann         : regularized MP2, r2SCAN double-hybrids, wr2SCAN        
                                                                         
We gratefully acknowledge several colleagues who have allowed us to      
interface, adapt or use parts of their codes:                            
  Ed Valeev, F. Pavosevic, A. Kumar             : LibInt (2-el integral package), F12 methods 
  Garnet Chan, S. Sharma, J. Yang, R. Olivares  : DMRG                   
  Ulf Ekstrom                                   : XCFun DFT Library      
  Mihaly Kallay                                 : mrcc  (arbitrary order and MRCC methods)
  Frank Weinhold                                : gennbo (NPA and NBO analysis)           
  Simon Mueller                                 : openCOSMO-RS                            
  Christopher J. Cramer and Donald G. Truhlar   : smd solvation model                     
  S Lehtola, MJT Oliveira, MAL Marques          : LibXC Library                           
  Liviu Ungur et al                             : ANISO software                          


 Your calculation uses the libint2 library for the computation of 2-el integrals
 For citations please refer to: http://libint.valeyev.net

 Your ORCA version has been built with support for libXC version: 7.0.0
 For citations please refer to: https://libxc.gitlab.io

 This ORCA versions uses:
   CBLAS   interface :  Fast vector & matrix operations
   LAPACKE interface :  Fast linear algebra routines
   SCALAPACK package :  Parallel linear algebra routines
   Shared memory     :  Shared parallel matrices
   BLAS/LAPACK       :  OpenBLAS 0.3.29  USE64BITINT DYNAMIC_ARCH NO_AFFINITY Zen SINGLE_THREADED
        Core in use  :  Zen
   Copyright (c) 2011-2014, The OpenBLAS Project


  ***********************************
  * Starting time: Wed Nov 12 17:39:30 2025
  * Host name:     HARU
  * Process ID:    943116
  * Working dir.:  /home/eigenlicht/projects/nano/carbendazim/spek
  ***********************************

NOTE: MaxCore=4096 MB was set to SCF,MP2,MDCI,CIPSI,MRCI,RASCI and CIS
      => If you want to overwrite this, your respective input block should be placed after the MaxCore statement
Your calculation utilizes the atom-pairwise dispersion correction
with the Becke-Johnson damping scheme (D3BJ)


Warning: RI is on but no J-basis has been assigned. Assigning Def2/J (nothing to worry about!)
================================================================================

----- Orbital basis set information -----
Your calculation utilizes the basis: 6-311++G(d,p)
   H, Li - Ne  : R. Krishnan, J. S. Binkley, R. Seeger and J. A. Pople, J. Chem. Phys. 72, 650 (1980).
   Na - Ar     : A. D. McLean and G. S. Chandler J. Chem. Phys. 72, 5639, (1980).
   K  - Ca     : J.-P. Blaudeau, M. P. McGrath, L. A. Curtiss and L. Radom, J. Chem. Phys. 107, 5016 (1997).
   Ga - Kr     : L. A. Curtiss, M. P. McGrath, J.-P. Blandeau, N. E. Davis, R. C. Binning and L. Radom, J. Chem. Phys. 103, 6104 (1995).
   Pol./Diff.
   H, Li - Cl  : T. Clark, J. Chandrasekhar and P. v. R. Schleyer, J. Comp. Chem. 4, 294 (1983).
   H - Ne      : M. J. Frisch, J. A. Pople and J. S. Binkley, J. Chem. Phys. 80, 3265 (1984).

----- AuxJ basis set information -----
Your calculation utilizes the auxiliary basis: def2/J
   H-Rn: F. Weigend, Phys. Chem. Chem. Phys. 8, 1057 (2006).
   Fr-Lr: K. Eichkorn, F. Weigend, O. Treutler, R. Ahlrichs; Theor. Chem. Acc. 97, 119 (1997).

================================================================================
                                        WARNINGS
                       Please study these warnings very carefully!
================================================================================


WARNING: Geometry Optimization
  ===> : Switching off AutoStart
         For restart on a previous wavefunction, please use MOREAD

================================================================================
                                       INPUT FILE
================================================================================
NAME = p1xs0.inp
|  1> ! B3LYP D3BJ 6-311++G(d,p) OPT FREQ RIJCOSX VeryTightSCF DefGrid3 CPCM(Water) PAL16
|  2> 
|  3> % maxcore 4096
|  4> 
|  5> * xyz 0 1
|  6>    C        0.99284        4.00599       -0.06713
|  7>    H        0.98430        5.08201       -0.13933
|  8>    C       -0.17716        3.27056       -0.07228
|  9>    H       -1.12344        3.78332       -0.15005
| 10>    C       -0.16427        1.87845        0.02086
| 11>    H       -1.10334        1.34644        0.01262
| 12>    C        1.01439        1.16724        0.12308
| 13>    H        1.02360        0.09221        0.19506
| 14>    C        2.20293        1.88708        0.13079
| 15>    C        2.17801        3.29926        0.03514
| 16>    N        3.49624        3.68965        0.07080
| 17>    H        3.88955        4.61820        0.02684
| 18>    C        4.22347        2.54510        0.18223
| 19>    N        3.50773        1.45397        0.22206
| 20>    N        5.60040        2.53550        0.24787
| 21>    H        6.03444        1.62471        0.33253
| 22>    C        6.39567        3.63646        0.20361
| 23>    O        6.00029        4.78252        0.10238
| 24>    O        7.68046        3.28809        0.28871
| 25>    C        8.63904        4.35030        0.25717
| 26>    H        8.55185        4.90710       -0.67620
| 27>    H        8.47519        5.02848        1.09506
| 28>    H        9.60627        3.86414        0.33238
| 29> **                         ****END OF INPUT****
================================================================================

                       *****************************
                       * Geometry Optimization Run *
                       *****************************

Geometry optimization settings:
Update method            Update   .... BFGS
Choice of coordinates    CoordSys .... (2022) Redundant Internals
Initial Hessian          InHess   .... Almloef's Model
Max. no of cycles        MaxIter  .... 69

Convergence Tolerances:
Energy Change            TolE     ....  5.0000e-06 Eh
Max. Gradient            TolMAXG  ....  3.0000e-04 Eh/bohr
RMS Gradient             TolRMSG  ....  1.0000e-04 Eh/bohr
Max. Displacement        TolMAXD  ....  4.0000e-03 bohr
RMS Displacement         TolRMSD  ....  2.0000e-03 bohr
Strict Convergence                .... False

------------------------------------------------------------------------------
                        ORCA OPTIMIZATION COORDINATE SETUP
------------------------------------------------------------------------------

The optimization will be done in redundant internal coordinates (2022)
Making redundant internal coordinates   ...  (2022 redundants) done
Evaluating the initial hessian          ...  (Almloef) done
Evaluating the coordinates              ...  done
Calculating the B-matrix                .... done
Calculating the G-matrix                .... done
The number of degrees of freedom        ....  112

    -----------------------------------------------------------------
                    Redundant Internal Coordinates


    -----------------------------------------------------------------
         Definition                    Initial Value    Approx d2E/dq
    -----------------------------------------------------------------
      1. B(H   1,C   0)                  1.0785         0.375676   
      2. B(C   2,C   0)                  1.3819         0.643551   
      3. B(H   3,C   2)                  1.0791         0.374837   
      4. B(C   4,C   2)                  1.3953         0.612790   
      5. B(H   5,C   4)                  1.0793         0.374494   
      6. B(C   6,C   4)                  1.3804         0.647221   
      7. B(H   7,C   6)                  1.0775         0.377054   
      8. B(C   8,C   6)                  1.3896         0.625824   
      9. B(C   9,C   8)                  1.4156         0.568643   
     10. B(C   9,C   0)                  1.3837         0.639486   
     11. B(N  10,C   9)                  1.3753         0.590682   
     12. B(H  11,N  10)                  1.0094         0.433709   
     13. B(C  12,N  10)                  1.3606         0.623385   
     14. B(N  13,C  12)                  1.3055         0.763178   
     15. B(N  13,C   8)                  1.3778         0.585182   
     16. B(N  14,C  12)                  1.3785         0.583687   
     17. B(H  15,N  14)                  1.0125         0.428799   
     18. B(C  16,N  14)                  1.3589         0.627397   
     19. B(O  17,H  11)                  2.1185         0.010000   
     20. B(O  17,C  16)                  1.2166         1.058236   
     21. B(O  18,C  16)                  1.3339         0.687669   
     22. B(C  19,O  18)                  1.4311         0.481105   
     23. B(H  20,C  19)                  1.0903         0.359671   
     24. B(H  21,C  19)                  1.0903         0.359655   
     25. B(H  22,C  19)                  1.0851         0.366579   
     26. A(H   1,C   0,C   9)          121.4216         0.357323   
     27. A(C   2,C   0,C   9)          116.9771         0.439436   
     28. A(H   1,C   0,C   2)          121.6012         0.357708   
     29. A(C   0,C   2,C   4)          121.5262         0.436070   
     30. A(C   0,C   2,H   3)          119.3293         0.357572   
     31. A(H   3,C   2,C   4)          119.1445         0.354612   
     32. A(H   5,C   4,C   6)          119.3079         0.357863   
     33. A(C   2,C   4,C   6)          121.7949         0.436517   
     34. A(C   2,C   4,H   5)          118.8972         0.354557   
     35. A(C   4,C   6,C   8)          117.6353         0.438176   
     36. A(C   4,C   6,H   7)          121.7555         0.358278   
     37. A(H   7,C   6,C   8)          120.6092         0.356236   
     38. A(C   6,C   8,C   9)          120.0888         0.428095   
     39. A(C   9,C   8,N  13)          109.5556         0.420233   
     40. A(C   6,C   8,N  13)          130.3556         0.427494   
     41. A(C   0,C   9,N  10)          132.6825         0.429874   
     42. A(C   0,C   9,C   8)          121.9777         0.429757   
     43. A(C   8,C   9,N  10)          105.3398         0.420935   
     44. A(H  11,N  10,C  12)          124.6906         0.359142   
     45. A(C   9,N  10,C  12)          106.0009         0.425124   
     46. A(C   9,N  10,H  11)          129.3086         0.355868   
     47. A(N  13,C  12,N  14)          122.7058         0.439926   
     48. A(N  10,C  12,N  14)          122.9307         0.424218   
     49. A(N  10,C  12,N  13)          114.3635         0.445192   
     50. A(C   8,N  13,C  12)          104.7402         0.440130   
     51. A(H  15,N  14,C  16)          118.7291         0.358839   
     52. A(C  12,N  14,C  16)          125.2660         0.424705   
     53. A(C  12,N  14,H  15)          116.0046         0.354464   
     54. A(O  17,C  16,O  18)          124.3587         0.481158   
     55. A(N  14,C  16,O  18)          110.4886         0.437396   
     56. A(N  14,C  16,O  17)          125.1526         0.473100   
     57. A(C  16,O  18,C  19)          116.7369         0.417077   
     58. A(H  21,C  19,H  22)          111.0599         0.291599   
     59. A(H  20,C  19,H  22)          111.0632         0.291601   
     60. A(O  18,C  19,H  22)          105.2464         0.337134   
     61. A(H  20,C  19,H  21)          109.1592         0.290728   
     62. A(O  18,C  19,H  21)          110.1244         0.336066   
     63. A(O  18,C  19,H  20)          110.1410         0.336068   
     64. D(H   3,C   2,C   0,H   1)     -0.0185         0.028797   
     65. D(C   4,C   2,C   0,H   1)    179.9830         0.028797   
     66. D(C   4,C   2,C   0,C   9)     -0.0254         0.028797   
     67. D(H   3,C   2,C   0,C   9)    179.9732         0.028797   
     68. D(H   5,C   4,C   2,H   3)      0.0155         0.025948   
     69. D(H   5,C   4,C   2,C   0)   -179.9859         0.025948   
     70. D(C   6,C   4,C   2,C   0)      0.0244         0.025948   
     71. D(C   6,C   4,C   2,H   3)   -179.9742         0.025948   
     72. D(C   8,C   6,C   4,H   5)   -179.9824         0.029149   
     73. D(H   7,C   6,C   4,H   5)      0.0047         0.029149   
     74. D(H   7,C   6,C   4,C   2)    179.9944         0.029149   
     75. D(C   8,C   6,C   4,C   2)      0.0073         0.029149   
     76. D(N  13,C   8,C   6,C   4)    179.9120         0.027133   
     77. D(C   9,C   8,C   6,H   7)    179.9769         0.027133   
     78. D(C   9,C   8,C   6,C   4)     -0.0358         0.027133   
     79. D(N  13,C   8,C   6,H   7)     -0.0753         0.027133   
     80. D(N  10,C   9,C   8,N  13)      0.0503         0.022177   
     81. D(C   0,C   9,C   8,N  13)   -179.9226         0.022177   
     82. D(C   0,C   9,C   8,C   6)      0.0352         0.022177   
     83. D(N  10,C   9,C   0,C   2)   -179.9683         0.028410   
     84. D(N  10,C   9,C   0,H   1)      0.0234         0.028410   
     85. D(N  10,C   9,C   8,C   6)   -179.9919         0.022177   
     86. D(C   8,C   9,C   0,C   2)     -0.0039         0.028410   
     87. D(C   8,C   9,C   0,H   1)    179.9878         0.028410   
     88. D(C  12,N  10,C   9,C   8)     -0.0337         0.028052   
     89. D(C  12,N  10,C   9,C   0)    179.9350         0.028052   
     90. D(H  11,N  10,C   9,C   8)    179.9804         0.028052   
     91. D(H  11,N  10,C   9,C   0)     -0.0509         0.028052   
     92. D(N  14,C  12,N  10,C   9)   -179.9886         0.031495   
     93. D(N  13,C  12,N  10,H  11)    179.9929         0.031495   
     94. D(N  13,C  12,N  10,C   9)      0.0061         0.031495   
     95. D(N  14,C  12,N  10,H  11)     -0.0019         0.031495   
     96. D(C   8,N  13,C  12,N  14)   -179.9802         0.044405   
     97. D(C   8,N  13,C  12,N  10)      0.0250         0.044405   
     98. D(C  12,N  13,C   8,C   9)     -0.0461         0.024932   
     99. D(C  12,N  13,C   8,C   6)   -179.9982         0.024932   
    100. D(C  16,N  14,C  12,N  13)    179.6129         0.027348   
    101. D(C  16,N  14,C  12,N  10)     -0.3927         0.027348   
    102. D(H  15,N  14,C  12,N  13)     -0.1711         0.027348   
    103. D(H  15,N  14,C  12,N  10)    179.8233         0.027348   
    104. D(O  18,C  16,N  14,H  15)     -0.1596         0.031934   
    105. D(O  18,C  16,N  14,C  12)   -179.9382         0.031934   
    106. D(O  17,C  16,N  14,H  15)    179.9234         0.031934   
    107. D(O  17,C  16,N  14,C  12)      0.1447         0.031934   
    108. D(C  19,O  18,C  16,O  17)      0.0210         0.035294   
    109. D(C  19,O  18,C  16,N  14)   -179.8968         0.035294   
    110. D(H  22,C  19,O  18,C  16)   -179.7301         0.018261   
    111. D(H  21,C  19,O  18,C  16)     60.4981         0.018261   
    112. D(H  20,C  19,O  18,C  16)    -59.9458         0.018261   
    -----------------------------------------------------------------

Number of atoms                         .... 23
Number of degrees of freedom            .... 112


         *************************************************************
         *                GEOMETRY OPTIMIZATION CYCLE   1            *
         *************************************************************
---------------------------------
CARTESIAN COORDINATES (ANGSTROEM)
---------------------------------
  C      0.992840    4.005990   -0.067130
  H      0.984300    5.082010   -0.139330
  C     -0.177160    3.270560   -0.072280
  H     -1.123440    3.783320   -0.150050
  C     -0.164270    1.878450    0.020860
  H     -1.103340    1.346440    0.012620
  C      1.014390    1.167240    0.123080
  H      1.023600    0.092210    0.195060
  C      2.202930    1.887080    0.130790
  C      2.178010    3.299260    0.035140
  N      3.496240    3.689650    0.070800
  H      3.889550    4.618200    0.026840
  C      4.223470    2.545100    0.182230
  N      3.507730    1.453970    0.222060
  N      5.600400    2.535500    0.247870
  H      6.034440    1.624710    0.332530
  C      6.395670    3.636460    0.203610
  O      6.000290    4.782520    0.102380
  O      7.680460    3.288090    0.288710
  C      8.639040    4.350300    0.257170
  H      8.551850    4.907100   -0.676200
  H      8.475190    5.028480    1.095060
  H      9.606270    3.864140    0.332380

----------------------------
CARTESIAN COORDINATES (A.U.)
----------------------------
  NO LB      ZA    FRAG     MASS         X           Y           Z
   0 C     6.0000    0    12.011    1.876196    7.570224   -0.126857
   1 H     1.0000    0     1.008    1.860057    9.603607   -0.263296
   2 C     6.0000    0    12.011   -0.334784    6.180463   -0.136589
   3 H     1.0000    0     1.008   -2.122994    7.149439   -0.283553
   4 C     6.0000    0    12.011   -0.310425    3.549756    0.039420
   5 H     1.0000    0     1.008   -2.085010    2.544403    0.023848
   6 C     6.0000    0    12.011    1.916919    2.205764    0.232587
   7 H     1.0000    0     1.008    1.934324    0.174252    0.368610
   8 C     6.0000    0    12.011    4.162934    3.566064    0.247157
   9 C     6.0000    0    12.011    4.115842    6.234698    0.066405
  10 N     7.0000    0    14.007    6.606936    6.972428    0.133793
  11 H     1.0000    0     1.008    7.350184    8.727133    0.050720
  12 C     6.0000    0    12.011    7.981202    4.809542    0.344365
  13 N     7.0000    0    14.007    6.628649    2.747605    0.419633
  14 N     7.0000    0    14.007   10.583222    4.791401    0.468406
  15 H     1.0000    0     1.008   11.403439    3.070257    0.628391
  16 C     6.0000    0    12.011   12.086065    6.871913    0.384767
  17 O     8.0000    0    15.999   11.338905    9.037653    0.193470
  18 O     8.0000    0    15.999   14.513966    6.213590    0.545583
  19 C     6.0000    0    12.011   16.325420    8.220876    0.485981
  20 H     1.0000    0     1.008   16.160654    9.273075   -1.277833
  21 H     1.0000    0     1.008   16.015788    9.502450    2.069364
  22 H     1.0000    0     1.008   18.153219    7.302166    0.628107

--------------------------------
INTERNAL COORDINATES (ANGSTROEM)
--------------------------------
 C      0   0   0     0.000000000000     0.00000000     0.00000000
 H      1   0   0     1.078473371020     0.00000000     0.00000000
 C      1   2   0     1.381949278157   121.60124233     0.00000000
 H      3   1   2     1.079081474635   119.32927483     0.00000000
 C      3   1   2     1.395281858192   121.52621710   179.98296857
 H      5   3   1     1.079330812402   118.89718595   180.01409582
 C      5   3   1     1.380401386590   121.79487454     0.02435392
 H      7   5   3     1.077476424522   121.75548557   179.99444481
 C      7   5   3     1.389552590333   117.63534522     0.00000000
 C      1   2   3     1.383674229976   121.42164883   180.00869246
 N     10   1   2     1.375284087234   132.68249287     0.02336649
 H     11  10   1     1.009371259844   129.30855164   359.94914457
 C     11  10   1     1.360615603431   106.00087307   179.93501941
 N     13  11  10     1.305540061967   114.36353587     0.00000000
 N     13  11  10     1.378527110542   122.93071331   180.01138598
 H     15  13  11     1.012470474286   116.00460693   179.82325806
 C     15  13  11     1.358869472061   125.26596230   359.60725210
 O     17  15  13     1.216563348494   125.15264831     0.14474479
 O     17  15  13     1.333899925407   110.48861162   180.06180668
 C     19  17  15     1.431139571146   116.73693590   180.10317113
 H     20  19  17     1.090324673205   110.14104105   300.05424031
 H     20  19  17     1.090336914444   110.12440991    60.49810581
 H     20  19  17     1.085146055884   105.24636393   180.26986849

---------------------------
INTERNAL COORDINATES (A.U.)
---------------------------
 C      0   0   0     0.000000000000     0.00000000     0.00000000
 H      1   0   0     2.038019313955     0.00000000     0.00000000
 C      1   2   0     2.611505666688   121.60124233     0.00000000
 H      3   1   2     2.039168463248   119.32927483     0.00000000
 C      3   1   2     2.636700591612   121.52621710   179.98296857
 H      5   3   1     2.039639643342   118.89718595   180.01409582
 C      5   3   1     2.608580575541   121.79487454     0.02435392
 H      7   5   3     2.036135358103   121.75548557   179.99444481
 C      7   5   3     2.625873844409   117.63534522     0.00000000
 C      1   2   3     2.614765353219   121.42164883   180.00869246
 N     10   1   2     2.598910281213   132.68249287     0.02336649
 H     11  10   1     1.907435248557   129.30855164   359.94914457
 C     11  10   1     2.571190864025   106.00087307   179.93501941
 N     13  11  10     2.467113173980   114.36353587     0.00000000
 N     13  11  10     2.605038707111   122.93071331   180.01138598
 H     15  13  11     1.913291915081   116.00460693   179.82325806
 C     15  13  11     2.567891153942   125.26596230   359.60725210
 O     17  15  13     2.298971553221   125.15264831     0.14474479
 O     17  15  13     2.520705549077   110.48861162   180.06180668
 C     19  17  15     2.704461848883   116.73693590   180.10317113
 H     20  19  17     2.060415029415   110.14104105   300.05424031
 H     20  19  17     2.060438162005   110.12440991    60.49810581
 H     20  19  17     2.050628860925   105.24636393   180.26986849

---------------------
BASIS SET INFORMATION
---------------------
There are 4 groups of distinct atoms

 Group   1 Type C   : 12s6p1d contracted to 5s4p1d pattern {63111/3111/1}
 Group   2 Type H   : 6s1p contracted to 4s1p pattern {3111/1}
 Group   3 Type N   : 12s6p1d contracted to 5s4p1d pattern {63111/3111/1}
 Group   4 Type O   : 12s6p1d contracted to 5s4p1d pattern {63111/3111/1}

Atom   0C    basis set group =>   1
Atom   1H    basis set group =>   2
Atom   2C    basis set group =>   1
Atom   3H    basis set group =>   2
Atom   4C    basis set group =>   1
Atom   5H    basis set group =>   2
Atom   6C    basis set group =>   1
Atom   7H    basis set group =>   2
Atom   8C    basis set group =>   1
Atom   9C    basis set group =>   1
Atom  10N    basis set group =>   3
Atom  11H    basis set group =>   2
Atom  12C    basis set group =>   1
Atom  13N    basis set group =>   3
Atom  14N    basis set group =>   3
Atom  15H    basis set group =>   2
Atom  16C    basis set group =>   1
Atom  17O    basis set group =>   4
Atom  18O    basis set group =>   4
Atom  19C    basis set group =>   1
Atom  20H    basis set group =>   2
Atom  21H    basis set group =>   2
Atom  22H    basis set group =>   2
---------------------------------
AUXILIARY/J BASIS SET INFORMATION
---------------------------------
There are 4 groups of distinct atoms

 Group   1 Type C   : 12s5p4d2f1g contracted to 6s4p3d1f1g pattern {711111/2111/211/2/1}
 Group   2 Type H   : 5s2p1d contracted to 3s1p1d pattern {311/2/1}
 Group   3 Type N   : 12s5p4d2f1g contracted to 6s4p3d1f1g pattern {711111/2111/211/2/1}
 Group   4 Type O   : 12s5p4d2f1g contracted to 6s4p3d1f1g pattern {711111/2111/211/2/1}

Atom   0C    basis set group =>   1
Atom   1H    basis set group =>   2
Atom   2C    basis set group =>   1
Atom   3H    basis set group =>   2
Atom   4C    basis set group =>   1
Atom   5H    basis set group =>   2
Atom   6C    basis set group =>   1
Atom   7H    basis set group =>   2
Atom   8C    basis set group =>   1
Atom   9C    basis set group =>   1
Atom  10N    basis set group =>   3
Atom  11H    basis set group =>   2
Atom  12C    basis set group =>   1
Atom  13N    basis set group =>   3
Atom  14N    basis set group =>   3
Atom  15H    basis set group =>   2
Atom  16C    basis set group =>   1
Atom  17O    basis set group =>   4
Atom  18O    basis set group =>   4
Atom  19C    basis set group =>   1
Atom  20H    basis set group =>   2
Atom  21H    basis set group =>   2
Atom  22H    basis set group =>   2


           ************************************************************
           *        Program running with 16 parallel MPI-processes    *
           *              working on a common directory               *
           ************************************************************
------------------------------------------------------------------------------
                             ORCA STARTUP CALCULATIONS
                           -- RI-GTO INTEGRALS CHOSEN --
------------------------------------------------------------------------------
------------------------------------------------------------------------------
                   ___                                                        
                  /   \      - P O W E R E D   B Y -                         
                 /     \                                                     
                 |  |  |   _    _      __       _____    __    __             
                 |  |  |  | |  | |    /  \     |  _  \  |  |  /  |          
                  \  \/   | |  | |   /    \    | | | |  |  | /  /          
                 / \  \   | |__| |  /  /\  \   | |_| |  |  |/  /          
                |  |  |   |  __  | /  /__\  \  |    /   |      \           
                |  |  |   | |  | | |   __   |  |    \   |  |\   \          
                \     /   | |  | | |  |  |  |  | |\  \  |  | \   \       
                 \___/    |_|  |_| |__|  |__|  |_| \__\ |__|  \__/        
                                                                              
                      - O R C A' S   B I G   F R I E N D -                    
                                      &                                       
                       - I N T E G R A L  F E E D E R -                       
                                                                              
 v1 FN, 2020, v2 2021, v3 2022-2024                                           
------------------------------------------------------------------------------


----------------------
SHARK INTEGRAL PACKAGE
----------------------

Number of atoms                             ...     23
Number of basis functions                   ...    371
Number of shells                            ...    185
Maximum angular momentum                    ...      2
Integral batch strategy                     ... SHARK/LIBINT Hybrid
RI-J (if used) integral strategy            ... SPLIT-RIJ (Revised 2003 algorithm where possible)
Printlevel                                  ...      1
Contraction scheme used                     ... SEGMENTED contraction
Prescreening option                         ... SCHWARTZ
   Thresh                                   ... 1.000e-12
   Tcut                                     ... 1.000e-14
   Tpresel                                  ... 1.000e-14 
Coulomb Range Separation                    ... NOT USED
Exchange Range Separation                   ... NOT USED
Multipole approximations                    ... NOT USED
Finite Nucleus Model                        ... NOT USED
CABS basis                                  ... NOT available
Auxiliary Coulomb fitting basis             ... AVAILABLE
   # of basis functions in Aux-J            ...    785
   # of shells in Aux-J                     ...    255
   Maximum angular momentum in Aux-J        ...      4
Auxiliary J/K fitting basis                 ... NOT available
Auxiliary Correlation fitting basis         ... NOT available
Auxiliary 'external' fitting basis          ... NOT available

Checking pre-screening integrals            ... done (  0.1 sec) Dimension = 185
   => SHARK Basis and OBASIS are compatible. Storing Pre-screening
Shell pair information
Shell pair cut-off parameter TPreSel        ...   1.0e-14
Total number of shell pairs                 ...     17205
Shell pairs after pre-screening             ...     14663
Total number of primitive shell pairs       ...     54606
Primitive shell pairs kept                  ...     33608
          la=0 lb=0:   4800 shell pairs
          la=1 lb=0:   5926 shell pairs
          la=1 lb=1:   1886 shell pairs
          la=2 lb=0:   1210 shell pairs
          la=2 lb=1:    758 shell pairs
          la=2 lb=2:     83 shell pairs

Checking whether 4 symmetric matrices of dimension 371 fit in memory
:Max Core in MB      =   4096.00
 MB in use           =     21.01
 MB left             =   4074.99
 MB needed           =      2.11
 Data fit in memory  = YES
Calculating RI/J V-Matrix + Cholesky decomp.... done (  0.3 sec)
Calculating Nuclear repulsion               ... done (  0.0 sec) ENN=    844.817317639231 Eh

Diagonalization of the overlap matrix:
Smallest eigenvalue                        ... 4.386e-07
Time for diagonalization                   ...    0.029 sec
Threshold for overlap eigenvalues          ... 1.000e-07
Number of eigenvalues below threshold      ... 0
Time for construction of square roots      ...    0.032 sec
Total time needed                          ...    0.077 sec

-------------------
DFT GRID GENERATION
-------------------

General Integration Accuracy     IntAcc      ... 4.959
Radial Grid Type                 RadialGrid  ... OptM3 with GC (2021)
Angular Grid (max. ang.)         AngularGrid ... 6 (Lebedev-590)
Angular grid pruning method      GridPruning ... 4 (adaptive)
Weight generation scheme         WeightScheme... mBecke (2022)
Basis function cutoff            BFCut       ... 1.0000e-12
Integration weight cutoff        WCut        ... 1.0000e-14
Partially contracted basis set               ... off
Rotationally invariant grid construction     ... off
Angular grids for H and He will be reduced by one unit
Diffuse basis detected: some atoms will have their outermost
                        angular grid increased by 1.

Total number of grid points                  ...   291667
Total number of batches                      ...     4567
Average number of points per batch           ...       63
Average number of grid points per atom       ...    12681

--------------------
COSX GRID GENERATION
--------------------

GRIDX 1
-------
General Integration Accuracy     IntAcc      ... 4.020
Radial Grid Type                 RadialGrid  ... OptM3 with GC (2021)
Angular Grid (max. ang.)         AngularGrid ... 2 (Lebedev-110)
Angular grid pruning method      GridPruning ... 4 (adaptive)
Weight generation scheme         WeightScheme... mBecke (2022)
Basis function cutoff            BFCut       ... 1.0000e-12
Integration weight cutoff        WCut        ... 1.0000e-14
Partially contracted basis set               ... on
Rotationally invariant grid construction     ... off
Angular grids for H and He will be reduced by one unit
Diffuse basis detected: some atoms will have their outermost
                        angular grid increased by 1.

Total number of grid points                  ...    36744
Total number of batches                      ...      301
Average number of points per batch           ...      122
Average number of grid points per atom       ...     1598
UseSFitting                                  ... on

GRIDX 2
-------
General Integration Accuracy     IntAcc      ... 4.338
Radial Grid Type                 RadialGrid  ... OptM3 with GC (2021)
Angular Grid (max. ang.)         AngularGrid ... 3 (Lebedev-194)
Angular grid pruning method      GridPruning ... 4 (adaptive)
Weight generation scheme         WeightScheme... mBecke (2022)
Basis function cutoff            BFCut       ... 1.0000e-12
Integration weight cutoff        WCut        ... 1.0000e-14
Partially contracted basis set               ... on
Rotationally invariant grid construction     ... off
Angular grids for H and He will be reduced by one unit
Diffuse basis detected: some atoms will have their outermost
                        angular grid increased by 1.

Total number of grid points                  ...    81208
Total number of batches                      ...      644
Average number of points per batch           ...      126
Average number of grid points per atom       ...     3531
UseSFitting                                  ... on

GRIDX 3
-------
General Integration Accuracy     IntAcc      ... 4.871
Radial Grid Type                 RadialGrid  ... OptM3 with GC (2021)
Angular Grid (max. ang.)         AngularGrid ... 4 (Lebedev-302)
Angular grid pruning method      GridPruning ... 4 (adaptive)
Weight generation scheme         WeightScheme... mBecke (2022)
Basis function cutoff            BFCut       ... 1.0000e-12
Integration weight cutoff        WCut        ... 1.0000e-14
Partially contracted basis set               ... on
Rotationally invariant grid construction     ... off
Angular grids for H and He will be reduced by one unit
Diffuse basis detected: some atoms will have their outermost
                        angular grid increased by 1.

Total number of grid points                  ...   148535
Total number of batches                      ...     1174
Average number of points per batch           ...      126
Average number of grid points per atom       ...     6458
UseSFitting                                  ... on
Grids setup in  13.1 sec
Initializing property integral containers    ... done (  0.0 sec)

SHARK setup successfully completed in  14.3 seconds

Maximum memory used throughout the entire STARTUP-calculation: 69.9 MB


           ************************************************************
           *        Program running with 16 parallel MPI-processes    *
           *              working on a common directory               *
           ************************************************************
-------------------------------------------------------------------------------
                                 ORCA GUESS
                   Start orbitals & Density for SCF / CASSCF
-------------------------------------------------------------------------------

------------
SCF SETTINGS
------------
Hamiltonian:
 Density Functional     Method          .... DFT(GTOs)
 Exchange Functional    Exchange        .... B88
   X-Alpha parameter    XAlpha          ....  0.666667
   Becke's b parameter  XBeta           ....  0.004200
 Correlation Functional Correlation     .... LYP
 LDA part of GGA corr.  LDAOpt          .... VWN-5
 Gradients option       PostSCFGGA      .... off
 Hybrid DFT is turned on
   Fraction HF Exchange ScalHFX         ....  0.200000
   Scaling of DF-GGA-X  ScalDFX         ....  0.720000
   Scaling of DF-GGA-C  ScalDFC         ....  0.810000
   Scaling of DF-LDA-C  ScalLDAC        ....  1.000000
   Perturbative correction              ....  0.000000
   NL short-range parameter             ....  4.800000
 RI-approximation to the Coulomb term is turned on
   Number of AuxJ basis functions       .... 785
   RIJ-COSX (HFX calculated with COS-X)).... on


General Settings:
 Integral files         IntName         .... p1xs0
 Hartree-Fock type      HFTyp           .... RHF
 Total Charge           Charge          ....    0
 Multiplicity           Mult            ....    1
 Number of Electrons    NEL             ....  100
 Basis Dimension        Dim             ....  371
 Nuclear Repulsion      ENuc            ....    844.8173176392 Eh

Convergence Acceleration:
 AO-DIIS                CNVDIIS         .... on
   Start iteration      DIISMaxIt       ....    12
   Startup error        DIISStart       ....  0.200000
   # of expansion vecs  DIISMaxEq       ....     5
   Bias factor          DIISBfac        ....   1.050
   Max. coefficient     DIISMaxC        ....  10.000
 MO-DIIS                CNVKDIIS        .... off
 Trust-Rad. Augm. Hess. CNVTRAH         .... auto
   Auto Start mean grad. ratio tolernc. ....  1.125000
   Auto Start start iteration           ....    50
   Auto Start num. interpolation iter.  ....    10
   Max. Number of Micro iterations      ....    24
   Max. Number of Macro iterations      .... Maxiter - #DIIS iter
   Number of Davidson start vectors     ....     2
   Converg. threshold    (grad. norm)   ....   2.000e-06
   Grad. Scal. Fac. for Micro threshold ....   0.100
   Minimum threshold for Micro iter.    ....   1.000e-02
   NR start threshold (gradient norm)   ....   1.000e-04
   Initial trust radius                 ....   0.400
   Minimum AH scaling param. (alpha)    ....   1.000
   Maximum AH scaling param. (alpha)    .... 1000.000
   Quad. conv. algorithm                .... NR
   White noise on init. David. guess    .... on
   Maximum white noise                  ....   0.010
   Pseudo random numbers                .... off
   Inactive MOs                         .... canonical
   Orbital update algorithm             .... Taylor
   Preconditioner                       .... Diag
   Full preconditioner red. dimension   ....   250
 SOSCF                 CNVSOSCF           .... on
   Start iteration     SOSCFMaxIt         ....   150
   Startup grad/error  SOSCFStart         ....  0.003300
   Hessian update      SOSCFHessUp        .... L-BFGS
   Autom. constraints  SOSCFAutoConstrain .... off
 Level Shifting         CNVShift        .... on
   Level shift para.    LevelShift      ....    0.2500
   Turn off err/grad.   ShiftErr        ....    0.0010
 Zerner damping         CNVZerner       .... off
 Static damping         CNVDamp         .... on
   Fraction old density DampFac         ....    0.7000
   Max. Damping (<1)    DampMax         ....    0.9800
   Min. Damping (>=0)   DampMin         ....    0.0000
   Turn off err/grad.   DampErr         ....    0.1000

SCF Procedure:
 Maximum # iterations   MaxIter         ....   125
 SCF integral mode      SCFMode         .... Direct
   Integral package                     .... SHARK and LIBINT hybrid scheme
 Reset frequency        DirectResetFreq ....    20
 Integral Threshold     Thresh          ....  1.000e-12 Eh
 Primitive CutOff       TCut            ....  1.000e-14 Eh

Convergence Tolerance:
 Convergence Check Mode ConvCheckMode   .... Total+1el-Energy
 Convergence forced     ConvForced      .... 0
 Energy Change          TolE            ....  1.000e-09 Eh
 1-El. energy change                    ....  1.000e-06 Eh
 Orbital Gradient       TolG            ....  2.000e-06
 Orbital Rotation angle TolX            ....  2.000e-06
 DIIS Error             TolErr          ....  1.000e-08

------------------------------
INITIAL GUESS: MODEL POTENTIAL
------------------------------
Loading Hartree-Fock densities                     ... done
Calculating cut-offs                               ... done
Initializing the effective Hamiltonian             ... done
Setting up the integral package (SHARK)            ... done
Starting the Coulomb interaction                   ... done (   0.2 sec)
Making the grid                                    ... done (   0.8 sec)
Mapping shells                                     ... done
Starting the XC term evaluation                    ... done (   0.2 sec)
  promolecular density results
     # of electrons  =     99.992333941
     EX              =    -85.199087182
     EC              =     -3.459183191
     EX+EC           =    -88.658270372
Transforming the Hamiltonian                       ... done (   0.0 sec)
Diagonalizing the Hamiltonian                      ... done (   0.0 sec)
Back transforming the eigenvectors                 ... done (   0.0 sec)
Now organizing SCF variables                       ... done
                      ------------------
                      INITIAL GUESS DONE (   1.4 sec)
                      ------------------
             **** ENERGY FILE WAS UPDATED (p1xs0.en.tmp) ****
Finished Guess after   2.2 sec
Maximum memory used throughout the entire GUESS-calculation: 25.4 MB


           ************************************************************
           *        Program running with 16 parallel MPI-processes    *
           *              working on a common directory               *
           ************************************************************

-------------------------------------------------------------------------------------------
                                      ORCA LEAN-SCF
                              memory conserving SCF solver
-------------------------------------------------------------------------------------------

--------------------
CPCM SOLVATION MODEL
--------------------
CPCM parameters:
  Epsilon                                         ...      80.1510
  Refrac                                          ...       1.3328
  Rsolv                                           ...       1.3000
  Surface type                                    ... GAUSSIAN VDW
  Discretization scheme                           ... Constant charge density
    Threshold for H atoms                         ...       5.0000 (charges/Ang^2)
    Threshold for non-H atoms                     ...       5.0000 (charges/Ang^2)
  Epsilon function type                           ...         CPCM
Solvent:                                          ... WATER
Radii:
  Scheme                                          ... Element-dependent radii
  Radius for C  used is    3.8550 Bohr (=   2.0400 Ang.)
  Radius for H  used is    2.4944 Bohr (=   1.3200 Ang.)
  Radius for N  used is    3.5149 Bohr (=   1.8600 Ang.)
  Radius for O  used is    3.4469 Bohr (=   1.8240 Ang.)
Calculating surface                               ...        done! (  0.0s)
Cavity surface points                             ...         2138
Cavity Volume                                     ...    1469.4445
Cavity Surface-area                               ...     799.3261
Calculating surface distance matrix               ...        done! (  0.2s)
Performing Cholesky decomposition & store         ...        done! (  1.1s)
Overall time for CPCM initialization              ...                 1.3s

----------------------------------------D-I-I-S--------------------------------------------
Iteration    Energy (Eh)           Delta-E    RMSDP     MaxDP     DIISErr   Damp  Time(sec)
-------------------------------------------------------------------------------------------
               ***  Starting incremental Fock matrix formation  ***
    1    -662.5362939858823665     0.00e+00  6.75e-02  1.69e+00  3.38e-01  0.700  10.1
    2    -662.7330608247432338    -1.97e-01  4.97e-02  1.51e+00  1.30e-01  0.700   5.6
                               ***Turning on AO-DIIS***
    3    -662.8080978081600279    -7.50e-02  1.96e-02  7.09e-01  5.00e-02  0.700   7.0
    4    -662.8536786446320548    -4.56e-02  2.23e-02  4.95e-01  2.43e-02  0.000   5.9
    5    -662.9541631833862994    -1.00e-01  8.61e-03  2.41e-01  7.36e-03  0.000   7.3
                              *** Initializing SOSCF ***
---------------------------------------S-O-S-C-F--------------------------------------
Iteration    Energy (Eh)           Delta-E    RMSDP     MaxDP     MaxGrad    Time(sec)
--------------------------------------------------------------------------------------
    6    -662.9547051895958703    -5.42e-04  2.28e-03  5.47e-02  2.56e-03     7.0
               *** Restarting incremental Fock matrix formation ***
    7    -662.9547365238752263    -3.13e-05  2.38e-03  8.73e-02  3.09e-04     9.0
    8    -662.9547296889079462     6.83e-06  8.52e-04  2.38e-02  5.77e-04     7.1
    9    -662.9547452227129725    -1.55e-05  5.93e-04  2.36e-02  5.00e-05     7.0
   10    -662.9547451482001179     7.45e-08  2.76e-04  7.48e-03  6.04e-05     6.5
   11    -662.9547455081526550    -3.60e-07  3.01e-04  1.16e-02  1.36e-05     5.8
   12    -662.9547454937544444     1.44e-08  1.94e-04  6.34e-03  1.78e-05     6.4
   13    -662.9547455191213885    -2.54e-08  1.05e-03  4.37e-02  2.77e-06     5.8
   14    -662.9547455186977913     4.24e-10  2.47e-04  6.51e-03  3.72e-06     5.8
                 **** Energy Check signals convergence ****

               *****************************************************
               *                     SUCCESS                       *
               *           SCF CONVERGED AFTER  14 CYCLES          *
               *****************************************************

Recomputing exchange energy using gridx3       ... done (    8.791 sec)
Old exchange energy                            :    -17.267401845 Eh
New exchange energy                            :    -17.267399081 Eh
Exchange energy change after final integration :      0.000002764 Eh
Total energy after final integration           :   -662.954742755 Eh
             **** ENERGY FILE WAS UPDATED (p1xs0.en.tmp) ****

----------------
TOTAL SCF ENERGY
----------------

Total Energy       :       -662.95474275508991 Eh          -18039.91568 eV

Components:
Nuclear Repulsion  :        844.81731763923062 Eh           22988.64793 eV
Electronic Energy  :      -1507.75138647724475 Eh          -41028.00105 eV
One Electron Energy:      -2576.87456876928036 Eh          -70120.32186 eV
Two Electron Energy:       1069.12318229203561 Eh           29092.32082 eV
CPCM Dielectric    :         -0.02067668150385 Eh              -0.56264 eV

Virial components:
Potential Energy   :      -1323.95538040402880 Eh          -36026.65746 eV
Kinetic Energy     :        661.00063764893889 Eh           17986.74178 eV
Virial Ratio       :          2.00295628323915

DFT components:
N(Alpha)           :       50.000006500806 electrons
N(Beta)            :       50.000006500806 electrons
N(Total)           :      100.000013001612 electrons
E(X)               :      -68.692434370744 Eh       
E(C)               :       -4.072485455103 Eh       
E(XC)              :      -72.764919825847 Eh       

CPCM Solvation Model Properties:
Surface-charge          :         -0.03037828075269
Corrected charge        :         -0.00000000000000
Outlying charge corr.   :          0.00005770537360 Eh               0.00157 eV
Free-energy (cav+disp)  :  This term is not implemented in the current solvation scheme

---------------
SCF CONVERGENCE
---------------

  Last Energy change         ...   -4.2360e-10  Tolerance :   1.0000e-09
  Last MAX-Density change    ...    6.5118e-03  Tolerance :   1.0000e-08
  Last RMS-Density change    ...    2.4726e-04  Tolerance :   1.0000e-09
  Last DIIS Error            ...    2.5594e-03  Tolerance :   1.0000e-08
  Last Orbital Gradient      ...    3.7209e-06  Tolerance :   2.0000e-06
  Last Orbital Rotation      ...    4.3550e-06  Tolerance :   2.0000e-06


----------------
ORBITAL ENERGIES
----------------

  NO   OCC          E(Eh)            E(eV) 
   0   2.0000     -19.180399      -521.9252 
   1   2.0000     -19.122197      -520.3414 
   2   2.0000     -14.375221      -391.1696 
   3   2.0000     -14.367347      -390.9554 
   4   2.0000     -14.304046      -389.2329 
   5   2.0000     -10.345369      -281.5118 
   6   2.0000     -10.289329      -279.9869 
   7   2.0000     -10.222515      -278.1688 
   8   2.0000     -10.211590      -277.8715 
   9   2.0000     -10.199856      -277.5522 
  10   2.0000     -10.175313      -276.8843 
  11   2.0000     -10.170520      -276.7539 
  12   2.0000     -10.168519      -276.6995 
  13   2.0000     -10.167016      -276.6586 
  14   2.0000      -1.137959       -30.9654 
  15   2.0000      -1.052959       -28.6525 
  16   2.0000      -1.036880       -28.2149 
  17   2.0000      -0.961318       -26.1588 
  18   2.0000      -0.896268       -24.3887 
  19   2.0000      -0.852545       -23.1989 
  20   2.0000      -0.765318       -20.8254 
  21   2.0000      -0.752141       -20.4668 
  22   2.0000      -0.725522       -19.7424 
  23   2.0000      -0.654843       -17.8192 
  24   2.0000      -0.635374       -17.2894 
  25   2.0000      -0.625669       -17.0253 
  26   2.0000      -0.592696       -16.1281 
  27   2.0000      -0.567673       -15.4472 
  28   2.0000      -0.551156       -14.9977 
  29   2.0000      -0.529682       -14.4134 
  30   2.0000      -0.510235       -13.8842 
  31   2.0000      -0.501056       -13.6344 
  32   2.0000      -0.481369       -13.0987 
  33   2.0000      -0.469733       -12.7821 
  34   2.0000      -0.450816       -12.2673 
  35   2.0000      -0.447395       -12.1742 
  36   2.0000      -0.440878       -11.9969 
  37   2.0000      -0.436512       -11.8781 
  38   2.0000      -0.423131       -11.5140 
  39   2.0000      -0.375631       -10.2215 
  40   2.0000      -0.369506       -10.0548 
  41   2.0000      -0.366262        -9.9665 
  42   2.0000      -0.363411        -9.8889 
  43   2.0000      -0.330639        -8.9971 
  44   2.0000      -0.321518        -8.7490 
  45   2.0000      -0.313036        -8.5181 
  46   2.0000      -0.308126        -8.3845 
  47   2.0000      -0.297492        -8.0952 
  48   2.0000      -0.239093        -6.5061 
  49   2.0000      -0.223188        -6.0732 
  50   0.0000      -0.027497        -0.7482 
  51   0.0000      -0.004364        -0.1188 
  52   0.0000       0.004051         0.1102 
  53   0.0000       0.005225         0.1422 
  54   0.0000       0.015004         0.4083 
  55   0.0000       0.016371         0.4455 
  56   0.0000       0.018781         0.5111 
  57   0.0000       0.027909         0.7594 
  58   0.0000       0.038222         1.0401 
  59   0.0000       0.038441         1.0460 
  60   0.0000       0.045322         1.2333 
*Only the first 10 virtual orbitals were printed.

                    ********************************
                    * MULLIKEN POPULATION ANALYSIS *
                    ********************************

-----------------------
MULLIKEN ATOMIC CHARGES
-----------------------
   0 C :   -0.453858
   1 H :    0.207379
   2 C :   -0.456080
   3 H :    0.203149
   4 C :   -0.378968
   5 H :    0.191975
   6 C :   -0.998956
   7 H :    0.206723
   8 C :    0.627626
   9 C :    0.722884
  10 N :   -0.282733
  11 H :    0.390290
  12 C :    0.435014
  13 N :   -0.241809
  14 N :   -0.546729
  15 H :    0.385242
  16 C :    0.064588
  17 O :   -0.379751
  18 O :   -0.100345
  19 C :   -0.169866
  20 H :    0.192396
  21 H :    0.192360
  22 H :    0.189468
Sum of atomic charges:    0.0000000

--------------------------------
MULLIKEN REDUCED ORBITAL CHARGES
--------------------------------
  0 C s       :     3.226825  s :     3.226825
      pz      :     1.020829  p :     3.167061
      px      :     0.973747
      py      :     1.172485
      dz2     :     0.004045  d :     0.059972
      dxz     :     0.012161
      dyz     :     0.004237
      dx2y2   :     0.022211
      dxy     :     0.017318

  1 H s       :     0.766597  s :     0.766597
      pz      :     0.006327  p :     0.026023
      px      :     0.004451
      py      :     0.015245

  2 C s       :     3.398061  s :     3.398061
      pz      :     1.010263  p :     2.997872
      px      :     1.027803
      py      :     0.959805
      dz2     :     0.003876  d :     0.060148
      dxz     :     0.005963
      dyz     :     0.009810
      dx2y2   :     0.018945
      dxy     :     0.021553

  3 H s       :     0.771411  s :     0.771411
      pz      :     0.006333  p :     0.025440
      px      :     0.012392
      py      :     0.006715

  4 C s       :     3.329928  s :     3.329928
      pz      :     1.007358  p :     2.988882
      px      :     1.067939
      py      :     0.913585
      dz2     :     0.004001  d :     0.060157
      dxz     :     0.005919
      dyz     :     0.009627
      dx2y2   :     0.018961
      dxy     :     0.021650

  5 H s       :     0.782639  s :     0.782639
      pz      :     0.006246  p :     0.025386
      px      :     0.012239
      py      :     0.006901

  6 C s       :     3.750200  s :     3.750200
      pz      :     1.018625  p :     3.189628
      px      :     0.923863
      py      :     1.247140
      dz2     :     0.003998  d :     0.059128
      dxz     :     0.011790
      dyz     :     0.004167
      dx2y2   :     0.021887
      dxy     :     0.017285

  7 H s       :     0.767414  s :     0.767414
      pz      :     0.006251  p :     0.025863
      px      :     0.004479
      py      :     0.015134

  8 C s       :     3.236993  s :     3.236993
      pz      :     0.998929  p :     2.033939
      px      :     0.106322
      py      :     0.928689
      dz2     :     0.006025  d :     0.101443
      dxz     :     0.020799
      dyz     :     0.009715
      dx2y2   :     0.037341
      dxy     :     0.027563

  9 C s       :     3.061357  s :     3.061357
      pz      :     1.026551  p :     2.118907
      px      :     0.780109
      py      :     0.312247
      dz2     :     0.006471  d :     0.096852
      dxz     :     0.021696
      dyz     :     0.010227
      dx2y2   :     0.034605
      dxy     :     0.023853

 10 N s       :     3.373738  s :     3.373738
      pz      :     1.538896  p :     3.877691
      px      :     1.099864
      py      :     1.238931
      dz2     :     0.002855  d :     0.031304
      dxz     :     0.005787
      dyz     :     0.002966
      dx2y2   :     0.008086
      dxy     :     0.011611

 11 H s       :     0.566383  s :     0.566383
      pz      :     0.011967  p :     0.043327
      px      :     0.010289
      py      :     0.021071

 12 C s       :     2.977650  s :     2.977650
      pz      :     1.002730  p :     2.431556
      px      :     0.652825
      py      :     0.776002
      dz2     :     0.008729  d :     0.155779
      dxz     :     0.028639
      dyz     :     0.028030
      dx2y2   :     0.050842
      dxy     :     0.039539

 13 N s       :     3.607832  s :     3.607832
      pz      :     1.266740  p :     3.597410
      px      :     1.013176
      py      :     1.317494
      dz2     :     0.003841  d :     0.036566
      dxz     :     0.005029
      dyz     :     0.006372
      dx2y2   :     0.008598
      dxy     :     0.012727

 14 N s       :     3.415682  s :     3.415682
      pz      :     1.605319  p :     4.104127
      px      :     1.270035
      py      :     1.228773
      dz2     :     0.002912  d :     0.026920
      dxz     :     0.004811
      dyz     :     0.002161
      dx2y2   :     0.008292
      dxy     :     0.008742

 15 H s       :     0.573826  s :     0.573826
      pz      :     0.011976  p :     0.040932
      px      :     0.009153
      py      :     0.019803

 16 C s       :     2.916673  s :     2.916673
      pz      :     0.856557  p :     2.781558
      px      :     1.105168
      py      :     0.819833
      dz2     :     0.010694  d :     0.237181
      dxz     :     0.032478
      dyz     :     0.046078
      dx2y2   :     0.068220
      dxy     :     0.079710

 17 O s       :     3.870369  s :     3.870369
      pz      :     1.509042  p :     4.493360
      px      :     1.687895
      py      :     1.296423
      dz2     :     0.001985  d :     0.016022
      dxz     :     0.000485
      dyz     :     0.004174
      dx2y2   :     0.005020
      dxy     :     0.004358

 18 O s       :     3.633856  s :     3.633856
      pz      :     1.732079  p :     4.451532
      px      :     1.191964
      py      :     1.527488
      dz2     :     0.002055  d :     0.014958
      dxz     :     0.002331
      dyz     :     0.001464
      dx2y2   :     0.004289
      dxy     :     0.004819

 19 C s       :     3.186265  s :     3.186265
      pz      :     1.136828  p :     2.907159
      px      :     0.903717
      py      :     0.866615
      dz2     :     0.013349  d :     0.076442
      dxz     :     0.006125
      dyz     :     0.019176
      dx2y2   :     0.013374
      dxy     :     0.024418

 20 H s       :     0.785700  s :     0.785700
      pz      :     0.011531  p :     0.021904
      px      :     0.003762
      py      :     0.006610

 21 H s       :     0.785746  s :     0.785746
      pz      :     0.010226  p :     0.021894
      px      :     0.003819
      py      :     0.007849

 22 H s       :     0.789007  s :     0.789007
      pz      :     0.005210  p :     0.021524
      px      :     0.011440
      py      :     0.004874



                     *******************************
                     * LOEWDIN POPULATION ANALYSIS *
                     *******************************

----------------------
LOEWDIN ATOMIC CHARGES
----------------------
   0 C :   -0.046235
   1 H :    0.069591
   2 C :   -0.065984
   3 H :    0.058987
   4 C :   -0.068878
   5 H :    0.058217
   6 C :   -0.051284
   7 H :    0.065994
   8 C :   -0.083913
   9 C :   -0.050572
  10 N :    0.067876
  11 H :    0.135239
  12 C :   -0.013483
  13 N :   -0.147513
  14 N :    0.048147
  15 H :    0.148051
  16 C :   -0.012879
  17 O :   -0.244398
  18 O :   -0.134787
  19 C :    0.088727
  20 H :    0.059271
  21 H :    0.059232
  22 H :    0.060594

-------------------------------
LOEWDIN REDUCED ORBITAL CHARGES
-------------------------------
  0 C s       :     2.764296  s :     2.764296
      pz      :     0.994654  p :     3.145622
      px      :     1.086382
      py      :     1.064586
      dz2     :     0.008785  d :     0.136317
      dxz     :     0.024933
      dyz     :     0.006653
      dx2y2   :     0.050543
      dxy     :     0.045402

  1 H s       :     0.857872  s :     0.857872
      pz      :     0.015779  p :     0.072537
      px      :     0.012133
      py      :     0.044626

  2 C s       :     2.775574  s :     2.775574
      pz      :     0.984745  p :     3.154451
      px      :     1.069231
      py      :     1.100475
      dz2     :     0.008456  d :     0.135959
      dxz     :     0.010893
      dyz     :     0.019852
      dx2y2   :     0.046154
      dxy     :     0.050605

  3 H s       :     0.869027  s :     0.869027
      pz      :     0.016001  p :     0.071985
      px      :     0.036487
      py      :     0.019497

  4 C s       :     2.775611  s :     2.775611
      pz      :     0.985302  p :     3.157078
      px      :     1.072610
      py      :     1.099166
      dz2     :     0.008689  d :     0.136188
      dxz     :     0.010903
      dyz     :     0.019561
      dx2y2   :     0.046339
      dxy     :     0.050697

  5 H s       :     0.869941  s :     0.869941
      pz      :     0.015754  p :     0.071842
      px      :     0.036045
      py      :     0.020043

  6 C s       :     2.769363  s :     2.769363
      pz      :     0.984521  p :     3.147353
      px      :     1.099438
      py      :     1.063393
      dz2     :     0.008731  d :     0.134568
      dxz     :     0.024008
      dyz     :     0.006548
      dx2y2   :     0.050276
      dxy     :     0.045004

  7 H s       :     0.861488  s :     0.861488
      pz      :     0.015705  p :     0.072518
      px      :     0.012224
      py      :     0.044589

  8 C s       :     2.746327  s :     2.746327
      pz      :     0.985702  p :     3.112026
      px      :     1.051756
      py      :     1.074569
      dz2     :     0.015455  d :     0.225560
      dxz     :     0.038853
      dyz     :     0.019575
      dx2y2   :     0.085000
      dxy     :     0.066676

  9 C s       :     2.736924  s :     2.736924
      pz      :     0.999357  p :     3.092859
      px      :     1.009713
      py      :     1.083789
      dz2     :     0.016158  d :     0.220789
      dxz     :     0.043287
      dyz     :     0.020603
      dx2y2   :     0.083226
      dxy     :     0.057515

 10 N s       :     2.953738  s :     2.953738
      pz      :     1.504526  p :     3.912967
      px      :     1.210611
      py      :     1.197830
      dz2     :     0.004575  d :     0.065420
      dxz     :     0.010631
      dyz     :     0.004642
      dx2y2   :     0.019439
      dxy     :     0.026133

 11 H s       :     0.725257  s :     0.725257
      pz      :     0.034957  p :     0.139504
      px      :     0.032697
      py      :     0.071850

 12 C s       :     2.719043  s :     2.719043
      pz      :     0.937786  p :     2.955095
      px      :     0.976958
      py      :     1.040351
      dz2     :     0.022957  d :     0.339345
      dxz     :     0.054293
      dyz     :     0.054880
      dx2y2   :     0.113813
      dxy     :     0.093402

 13 N s       :     3.137204  s :     3.137204
      pz      :     1.288048  p :     3.943953
      px      :     1.187900
      py      :     1.468005
      dz2     :     0.007342  d :     0.066355
      dxz     :     0.009699
      dyz     :     0.007033
      dx2y2   :     0.016908
      dxy     :     0.025373

 14 N s       :     2.952772  s :     2.952772
      pz      :     1.548533  p :     3.942001
      px      :     1.193301
      py      :     1.200167
      dz2     :     0.004831  d :     0.057080
      dxz     :     0.008638
      dyz     :     0.003537
      dx2y2   :     0.019542
      dxy     :     0.020532

 15 H s       :     0.723096  s :     0.723096
      pz      :     0.036313  p :     0.128853
      px      :     0.026117
      py      :     0.066423

 16 C s       :     2.699810  s :     2.699810
      pz      :     0.810761  p :     2.810929
      px      :     0.954661
      py      :     1.045506
      dz2     :     0.032601  d :     0.502141
      dxz     :     0.060906
      dyz     :     0.085355
      dx2y2   :     0.149941
      dxy     :     0.173338

 17 O s       :     3.476274  s :     3.476274
      pz      :     1.517344  p :     4.744306
      px      :     1.727517
      py      :     1.499445
      dz2     :     0.003604  d :     0.023817
      dxz     :     0.000538
      dyz     :     0.004636
      dx2y2   :     0.008363
      dxy     :     0.006676

 18 O s       :     3.398099  s :     3.398099
      pz      :     1.743083  p :     4.711774
      px      :     1.337591
      py      :     1.631100
      dz2     :     0.003500  d :     0.024915
      dxz     :     0.003426
      dyz     :     0.001689
      dx2y2   :     0.008168
      dxy     :     0.008131

 19 C s       :     2.761548  s :     2.761548
      pz      :     1.102463  p :     2.991375
      px      :     0.952008
      py      :     0.936904
      dz2     :     0.026033  d :     0.158349
      dxz     :     0.010580
      dyz     :     0.041656
      dx2y2   :     0.027582
      dxy     :     0.052498

 20 H s       :     0.872324  s :     0.872324
      pz      :     0.037565  p :     0.068405
      px      :     0.010954
      py      :     0.019886

 21 H s       :     0.872394  s :     0.872394
      pz      :     0.032811  p :     0.068375
      px      :     0.011416
      py      :     0.024149

 22 H s       :     0.872174  s :     0.872174
      pz      :     0.014183  p :     0.067232
      px      :     0.036239
      py      :     0.016809



                      *****************************
                      * MAYER POPULATION ANALYSIS *
                      *****************************

  NA   - Mulliken gross atomic population
  ZA   - Total nuclear charge
  QA   - Mulliken gross atomic charge
  VA   - Mayer's total valence
  BVA  - Mayer's bonded valence
  FA   - Mayer's free valence

  ATOM       NA         ZA         QA         VA         BVA        FA
  0 C      6.4539     6.0000    -0.4539     3.6462     3.6462    -0.0000
  1 H      0.7926     1.0000     0.2074     0.9302     0.9302    -0.0000
  2 C      6.4561     6.0000    -0.4561     4.4565     4.4565     0.0000
  3 H      0.7969     1.0000     0.2031     0.9207     0.9207     0.0000
  4 C      6.3790     6.0000    -0.3790     4.3408     4.3408     0.0000
  5 H      0.8080     1.0000     0.1920     0.9391     0.9391     0.0000
  6 C      6.9990     6.0000    -0.9990     4.1197     4.1197     0.0000
  7 H      0.7933     1.0000     0.2067     0.9215     0.9215     0.0000
  8 C      5.3724     6.0000     0.6276     3.2874     3.2874    -0.0000
  9 C      5.2771     6.0000     0.7229     3.3483     3.3483    -0.0000
 10 N      7.2827     7.0000    -0.2827     3.2254     3.2254    -0.0000
 11 H      0.6097     1.0000     0.3903     0.8387     0.8387    -0.0000
 12 C      5.5650     6.0000     0.4350     3.6462     3.6462    -0.0000
 13 N      7.2418     7.0000    -0.2418     2.8171     2.8171    -0.0000
 14 N      7.5467     7.0000    -0.5467     3.4616     3.4616    -0.0000
 15 H      0.6148     1.0000     0.3852     0.8418     0.8418     0.0000
 16 C      5.9354     6.0000     0.0646     4.4382     4.4382    -0.0000
 17 O      8.3798     8.0000    -0.3798     1.9064     1.9064     0.0000
 18 O      8.1003     8.0000    -0.1003     1.9488     1.9488     0.0000
 19 C      6.1699     6.0000    -0.1699     3.5604     3.5604     0.0000
 20 H      0.8076     1.0000     0.1924     0.9020     0.9020     0.0000
 21 H      0.8076     1.0000     0.1924     0.9021     0.9021     0.0000
 22 H      0.8105     1.0000     0.1895     0.9248     0.9248     0.0000

  Mayer bond orders larger than 0.100000
B(  0-C ,  1-H ) :   0.7787 B(  0-C ,  2-C ) :   1.7452 B(  0-C ,  4-C ) :   0.1718 
B(  0-C ,  6-C ) :  -0.2912 B(  0-C ,  8-C ) :  -0.2877 B(  0-C ,  9-C ) :   1.7116 
B(  1-H ,  2-C ) :   0.1197 B(  1-H ,  9-C ) :   0.1178 B(  2-C ,  3-H ) :   0.9109 
B(  2-C ,  4-C ) :   1.6070 B(  2-C ,  6-C ) :   0.5055 B(  2-C ,  8-C ) :  -0.2443 
B(  2-C ,  9-C ) :  -0.1553 B(  4-C ,  5-H ) :   0.9337 B(  4-C ,  6-C ) :   2.2375 
B(  4-C ,  8-C ) :  -0.3974 B(  4-C ,  9-C ) :  -0.2329 B(  4-C , 12-C ) :  -0.1753 
B(  5-H ,  6-C ) :  -0.1279 B(  5-H ,  8-C ) :   0.1079 B(  6-C ,  7-H ) :   0.7278 
B(  6-C ,  8-C ) :   2.2081 B(  6-C ,  9-C ) :  -0.1722 B(  6-C , 13-N ) :  -0.8659 
B(  8-C ,  9-C ) :   0.9077 B(  8-C , 10-N ) :  -0.5247 B(  8-C , 12-C ) :  -0.1121 
B(  8-C , 13-N ) :   1.5797 B(  8-C , 14-N ) :   0.1050 B(  8-C , 16-C ) :  -0.1259 
B(  9-C , 10-N ) :   1.5093 B(  9-C , 13-N ) :  -0.3759 B( 10-N , 11-H ) :   0.8276 
B( 10-N , 12-C ) :   1.2112 B( 10-N , 13-N ) :   0.2225 B( 10-N , 17-O ) :   0.1433 
B( 12-C , 13-N ) :   1.9931 B( 12-C , 14-N ) :   1.1886 B( 12-C , 16-C ) :  -0.1116 
B( 12-C , 17-O ) :  -0.3378 B( 13-N , 16-C ) :   0.1896 B( 14-N , 15-H ) :   0.8175 
B( 14-N , 16-C ) :   1.0608 B( 14-N , 18-O ) :   0.2308 B( 16-C , 17-O ) :   2.2864 
B( 16-C , 18-O ) :   1.1530 B( 17-O , 18-O ) :  -0.1142 B( 18-O , 19-C ) :   0.7460 
B( 19-C , 20-H ) :   0.9588 B( 19-C , 21-H ) :   0.9595 B( 19-C , 22-H ) :   0.9419 


-------
TIMINGS
-------

Total SCF time: 0 days 0 hours 2 min 0 sec 

Total time                  ....     120.051 sec
Sum of individual times     ....     113.922 sec  ( 94.9%)

SCF preparation             ....       8.278 sec  (  6.9%)
Fock matrix formation       ....      97.710 sec  ( 81.4%)
  Startup                   ....       0.308 sec  (  0.3% of F)
  Split-RI-J                ....       5.759 sec  (  5.9% of F)
  Chain of spheres X        ....      65.560 sec  ( 67.1% of F)
  XC integration            ....      20.164 sec  ( 20.6% of F)
    XC Preparation          ....       0.000 sec  (  0.0% of XC)
    Basis function eval.    ....       4.819 sec  ( 23.9% of XC)
    Density eval.           ....       5.043 sec  ( 25.0% of XC)
    XC-Functional eval.     ....       0.254 sec  (  1.3% of XC)
    XC-Potential eval.      ....       4.120 sec  ( 20.4% of XC)
  CPCM terms                ....       7.572 sec  (  7.7% of F)
Diagonalization             ....       0.000 sec  (  0.0%)
Density matrix formation    ....       0.718 sec  (  0.6%)
Total Energy calculation    ....       1.331 sec  (  1.1%)
Population analysis         ....       0.205 sec  (  0.2%)
Orbital Transformation      ....       0.388 sec  (  0.3%)
Orbital Orthonormalization  ....       0.000 sec  (  0.0%)
DIIS solution               ....       2.992 sec  (  2.5%)
SOSCF solution              ....       2.301 sec  (  1.9%)
Finished LeanSCF after 120.4 sec

Maximum memory used throughout the entire LEANSCF-calculation: 46.9 MB


           ************************************************************
           *        Program running with 16 parallel MPI-processes    *
           *              working on a common directory               *
           ************************************************************

------------------------------------------------------------------------------
                         ORCA PROPERTY INTEGRAL CALCULATIONS
------------------------------------------------------------------------------

GBWName                                   ... p1xs0.gbw
Number of atoms                           ...     23
Number of basis functions                 ...    371
Max core memory                           ...   4096 MB

Dipole integrals                          ... YES
Quadrupole integrals                      ...  NO
Linear momentum integrals                 ...  NO
Angular momentum integrals                ...  NO
Higher moments length integrals           ...  NO
Higher moments velocity integrals         ...  NO
Kinetic energy integrals                  ...  NO
GIAO right hand sides                     ...  NO
GIAO dipole derivative integrals          ...  NO
SOC integrals                             ...  NO
EPR diamagnetic integrals (GIAO)          ...  NO
EPR gauge integrals                       ...  NO
Field gradient integrals                  ...  NO (   0 nuclei)
Spin-dipole/Fermi contact integrals       ...  NO (   0 nuclei)
Contact density integrals                 ...  NO (   0 nuclei)
Nucleus-orbit integrals                   ...  NO (   0 nuclei)
Geometric perturbations                   ...  NO (  23 nuclei)

Choice of electric origin   ... Center of mass
Position of electric origin ... (  7.2746,  5.7332,  0.2435) 
[...]
  6:     44.92   0.000100    0.50  0.000694  ( 0.000367 -0.002175 -0.026244)
  7:     68.59   0.002190   11.07  0.009962  (-0.005987  0.007007  0.099385)
  8:    104.31   0.000905    4.57  0.002706  (-0.045174 -0.025730 -0.001921)
  9:    118.62   0.000768    3.88  0.002020  ( 0.003531 -0.002568 -0.044729)
 10:    147.34   0.000182    0.92  0.000385  (-0.000297  0.001447  0.019553)
 11:    183.28   0.002493   12.60  0.004245  (-0.003288  0.004361  0.064922)
 12:    251.01   0.000855    4.32  0.001063  (-0.003366  0.002344  0.032349)
 13:    255.05   0.002746   13.88  0.003360  ( 0.057550  0.004991  0.004843)
 14:    303.18   0.003782   19.11  0.003893  (-0.057637  0.023615 -0.003660)
 15:    344.92   0.000672    3.40  0.000608  (-0.001423  0.001730  0.024559)
 16:    369.25   0.005316   26.86  0.004492  (-0.066992 -0.001198 -0.001723)
 17:    435.93   0.000322    1.63  0.000230  ( 0.000737 -0.000635 -0.015141)
 18:    495.09   0.003250   16.43  0.002049  ( 0.035697 -0.024153  0.013824)
 19:    519.75   0.060694  306.72  0.036442  (-0.010733  0.014336  0.190056)
 20:    543.05   0.010675   53.95  0.006135  (-0.003197  0.004901  0.078105)
 21:    568.21   0.000031    0.16  0.000017  ( 0.003938 -0.001063  0.000528)
 22:    585.37   0.000959    4.85  0.000511  ( 0.001025 -0.001458 -0.022544)
 23:    635.31   0.000129    0.65  0.000064  (-0.003250 -0.007265 -0.000429)
 24:    714.30   0.002236   11.30  0.000977  (-0.001390  0.002083  0.031152)
 25:    731.26   0.002424   12.25  0.001035  (-0.031552  0.005596 -0.002762)
 26:    744.68   0.015407   77.86  0.006456  (-0.003653  0.005231  0.080097)
 27:    755.29   0.008579   43.35  0.003545  (-0.002925  0.003643  0.059353)
 28:    763.23   0.004871   24.62  0.001992  ( 0.019714  0.040024 -0.001018)
 29:    766.92   0.011787   59.57  0.004796  ( 0.003188 -0.004462 -0.069038)
 30:    853.64   0.000078    0.40  0.000029  ( 0.000284 -0.000449 -0.005329)
 31:    859.83   0.000662    3.34  0.000240  ( 0.009610  0.012158 -0.000203)
 32:    905.91   0.001860    9.40  0.000641  ( 0.025261 -0.001089  0.001175)
 33:    939.58   0.000919    4.64  0.000305  ( 0.000828 -0.000911 -0.017425)
 34:    967.97   0.002878   14.54  0.000928  ( 0.002905 -0.030226  0.002379)
 35:    973.41   0.000001    0.00  0.000000  ( 0.000080  0.000047  0.000448)
 36:   1014.01   0.007372   37.25  0.002269  (-0.045572 -0.013795 -0.001220)
 37:   1031.02   0.000606    3.06  0.000183  (-0.002377  0.013292 -0.001024)
 38:   1102.65   0.010538   53.25  0.002982  (-0.047615 -0.026743  0.000017)
 39:   1125.92   0.003396   17.16  0.000941  ( 0.028935 -0.010019  0.001879)
 40:   1161.82   0.000011    0.06  0.000003  (-0.000158  0.001724 -0.000103)
 41:   1169.71   0.000150    0.76  0.000040  ( 0.001074 -0.000307 -0.006227)
 42:   1209.56   0.000458    2.32  0.000118  ( 0.010215 -0.003649  0.000731)
 43:   1213.26   0.085175  430.44  0.021908  (-0.145029 -0.029183 -0.004772)
 44:   1232.83   0.197574  998.46  0.050011  ( 0.210881  0.074252  0.005234)
 45:   1244.99   0.001564    7.90  0.000392  ( 0.017391 -0.009333  0.001586)
 46:   1281.90   0.035239  178.08  0.008579  ( 0.091257 -0.014997  0.005076)
 47:   1330.16   0.004028   20.36  0.000945  (-0.004407 -0.030371  0.001808)
 48:   1393.61   0.002519   12.73  0.000564  ( 0.008773  0.022038 -0.001165)
 49:   1431.83   0.037781  190.93  0.008234  ( 0.087731 -0.022610  0.005122)
 50:   1470.13   0.003371   17.04  0.000716  (-0.002141  0.001938  0.026594)
 51:   1470.52   0.017681   89.35  0.003752  ( 0.060984 -0.004662  0.003380)
 52:   1472.26   0.032803  165.77  0.006953  ( 0.082011 -0.014294  0.004783)
 53:   1480.83   0.000997    5.04  0.000210  ( 0.014454  0.000751  0.000753)
 54:   1501.60   0.002862   14.46  0.000595  (-0.008350 -0.022876  0.001296)
 55:   1525.48   0.035566  179.74  0.007276  (-0.028891 -0.080135  0.004407)
 56:   1591.97   0.226180  1143.02  0.044337  (-0.194064 -0.081646 -0.003106)
 57:   1621.51   0.015099   76.30  0.002906  (-0.035249 -0.040764  0.001253)
 58:   1661.70   0.053548  270.61  0.010056  ( 0.090360  0.043474  0.001171)
 59:   1722.04   0.125037  631.89  0.022659  (-0.033311  0.146296 -0.012116)
 60:   3058.55   0.007305   36.91  0.000745  ( 0.020462  0.018071 -0.000202)
 61:   3139.29   0.004349   21.98  0.000432  (-0.001052  0.001456  0.020714)
 62:   3166.14   0.000276    1.40  0.000027  (-0.004227 -0.003058  0.000014)
 63:   3170.79   0.002419   12.23  0.000238  (-0.012346  0.009167 -0.001279)
 64:   3176.49   0.001982   10.02  0.000195  ( 0.012385 -0.006349  0.000996)
 65:   3185.01   0.004923   24.88  0.000482  (-0.008016 -0.020424  0.000990)
 66:   3192.13   0.002529   12.78  0.000247  (-0.015046  0.004463 -0.000989)
 67:   3593.09   0.041470  209.57  0.003602  (-0.024126  0.054719 -0.005056)
 68:   3597.37   0.058471  295.49  0.005072  ( 0.045534  0.054739 -0.001602)

* The epsilon (eps) is given for a Dirac delta lineshape.
** The dipole moment derivative (T) already includes vibrational overlap.

The first frequency considered to be a vibration is 6
The total number of vibrations considered is 63


--------------------------
THERMOCHEMISTRY AT 298.15K
--------------------------

Temperature         ...   298.15 K
Pressure            ...     1.00 atm
Total Mass          ...   191.19 AMU
Quasi RRHO          ...     True
Cut-Off Frequency   ...     1.00 cm^-1

Throughout the following assumptions are being made:
  (1) The electronic state is orbitally nondegenerate
  (2) There are no thermally accessible electronically excited states
  (3) Hindered rotations indicated by low frequency modes are not
      treated as such but are treated as vibrations and this may
      cause some error
  (4) All equations used are the standard statistical mechanics
      equations for an ideal gas
  (5) All vibrations are strictly harmonic

freq.      44.92  E(vib)   ...       0.53 
freq.      68.59  E(vib)   ...       0.50 
freq.     104.31  E(vib)   ...       0.46 
freq.     118.62  E(vib)   ...       0.44 
freq.     147.34  E(vib)   ...       0.41 
freq.     183.28  E(vib)   ...       0.37 
freq.     251.01  E(vib)   ...       0.30 
freq.     255.05  E(vib)   ...       0.30 
freq.     303.18  E(vib)   ...       0.26 
freq.     344.92  E(vib)   ...       0.23 
freq.     369.25  E(vib)   ...       0.21 
freq.     435.93  E(vib)   ...       0.17 
freq.     495.09  E(vib)   ...       0.14 
freq.     519.75  E(vib)   ...       0.13 
freq.     543.05  E(vib)   ...       0.12 
freq.     568.21  E(vib)   ...       0.11 
freq.     585.37  E(vib)   ...       0.11 
freq.     635.31  E(vib)   ...       0.09 
freq.     714.30  E(vib)   ...       0.07 
freq.     731.26  E(vib)   ...       0.06 
freq.     744.68  E(vib)   ...       0.06 
freq.     755.29  E(vib)   ...       0.06 
freq.     763.23  E(vib)   ...       0.06 
freq.     766.92  E(vib)   ...       0.06 
freq.     853.64  E(vib)   ...       0.04 
freq.     859.83  E(vib)   ...       0.04 
freq.     905.91  E(vib)   ...       0.03 
freq.     939.58  E(vib)   ...       0.03 
freq.     967.97  E(vib)   ...       0.03 
freq.     973.41  E(vib)   ...       0.03 
freq.    1014.01  E(vib)   ...       0.02 
freq.    1031.02  E(vib)   ...       0.02 
freq.    1102.65  E(vib)   ...       0.02 
freq.    1125.92  E(vib)   ...       0.01 
freq.    1161.82  E(vib)   ...       0.01 
freq.    1169.71  E(vib)   ...       0.01 
freq.    1209.56  E(vib)   ...       0.01 
freq.    1213.26  E(vib)   ...       0.01 
freq.    1232.83  E(vib)   ...       0.01 
freq.    1244.99  E(vib)   ...       0.01 
freq.    1281.90  E(vib)   ...       0.01 
freq.    1330.16  E(vib)   ...       0.01 
freq.    1393.61  E(vib)   ...       0.00 
freq.    1431.83  E(vib)   ...       0.00 
freq.    1470.13  E(vib)   ...       0.00 
freq.    1470.52  E(vib)   ...       0.00 
freq.    1472.26  E(vib)   ...       0.00 
freq.    1480.83  E(vib)   ...       0.00 
freq.    1501.60  E(vib)   ...       0.00 
freq.    1525.48  E(vib)   ...       0.00 
freq.    1591.97  E(vib)   ...       0.00 
freq.    1621.51  E(vib)   ...       0.00 
freq.    1661.70  E(vib)   ...       0.00 
freq.    1722.04  E(vib)   ...       0.00 
freq.    3058.55  E(vib)   ...       0.00 
freq.    3139.29  E(vib)   ...       0.00 
freq.    3166.14  E(vib)   ...       0.00 
freq.    3170.79  E(vib)   ...       0.00 
freq.    3176.49  E(vib)   ...       0.00 
freq.    3185.01  E(vib)   ...       0.00 
freq.    3192.13  E(vib)   ...       0.00 
freq.    3593.09  E(vib)   ...       0.00 
freq.    3597.37  E(vib)   ...       0.00 

------------
INNER ENERGY
------------

The inner energy is: U= E(el) + E(ZPE) + E(vib) + E(rot) + E(trans)
    E(el)   - is the total energy from the electronic structure calculation
              = E(kin-el) + E(nuc-el) + E(el-el) + E(nuc-nuc)
    E(ZPE)  - the the zero temperature vibrational energy from the frequency calculation
    E(vib)  - the the finite temperature correction to E(ZPE) due to population
              of excited vibrational states
    E(rot)  - is the rotational thermal energy
    E(trans)- is the translational thermal energy

Summary of contributions to the inner energy U:
Electronic energy                ...   -662.99837515 Eh
Zero point energy                ...      0.17698950 Eh     111.06 kcal/mol
Thermal vibrational correction   ...      0.00896292 Eh       5.62 kcal/mol
Thermal rotational correction    ...      0.00141627 Eh       0.89 kcal/mol
Thermal translational correction ...      0.00141627 Eh       0.89 kcal/mol
-----------------------------------------------------------------------
Total thermal energy                   -662.80959020 Eh


Summary of corrections to the electronic energy:
(perhaps to be used in another calculation)
Total thermal correction                  0.01179546 Eh       7.40 kcal/mol
Non-thermal (ZPE) correction              0.17698950 Eh     111.06 kcal/mol
-----------------------------------------------------------------------
Total correction                          0.18878496 Eh     118.46 kcal/mol


--------
ENTHALPY
--------

The enthalpy is H = U + kB*T
                kB is Boltzmann's constant
Total thermal energy              ...   -662.80959020 Eh 
Thermal Enthalpy correction       ...      0.00094421 Eh       0.59 kcal/mol
-----------------------------------------------------------------------
Total Enthalpy                    ...   -662.80864599 Eh


Note: Only C1 symmetry has been detected, increase convergence thresholds 
      if your molecule has a higher symmetry. Symmetry factor of 1.0 is   
      used for the rotational entropy correction. 
 

Note: Rotational entropy computed according to Herzberg 
Infrared and Raman Spectra, Chapter V,1, Van Nostrand Reinhold, 1945 
Point Group:  C1, Symmetry Number:   1  
Rotational constants in cm-1:     0.091388     0.010607     0.009521 

Vibrational entropy computed according to the QRRHO of S. Grimme
Chem.Eur.J. 2012 18 9955 using a reference frequency of 100.0 cm-1


-------
ENTROPY
-------

The entropy contributions are T*S = T*(S(el)+S(vib)+S(rot)+S(trans))
     S(el)   - electronic entropy
     S(vib)  - vibrational entropy
     S(rot)  - rotational entropy
     S(trans)- translational entropy
The entropies will be listed as multiplied by the temperature to get
units of energy

Electronic entropy                ...      0.00000000 Eh      0.00 kcal/mol
Vibrational entropy               ...      0.01538968 Eh      9.66 kcal/mol
Rotational entropy                ...      0.01498379 Eh      9.40 kcal/mol
Translational entropy             ...      0.01978912 Eh     12.42 kcal/mol
-----------------------------------------------------------------------
Final entropy term                ...      0.05016260 Eh     31.48 kcal/mol

In case the symmetry of your molecule has not been determined correctly
or in case you have a reason to use a different symmetry number we print 
out the resulting rotational entropy values for sn=1,12:

 non-linear molecules -----------------------------------
|  sn= 1 | S(rot)=       0.01498379 Eh      9.40 kcal/mol|
|  sn= 2 | S(rot)=       0.01432934 Eh      8.99 kcal/mol|
|  sn= 3 | S(rot)=       0.01394650 Eh      8.75 kcal/mol|
|  sn= 4 | S(rot)=       0.01367488 Eh      8.58 kcal/mol|
|  sn= 5 | S(rot)=       0.01346419 Eh      8.45 kcal/mol|
|  sn= 6 | S(rot)=       0.01329205 Eh      8.34 kcal/mol|
|  sn= 7 | S(rot)=       0.01314650 Eh      8.25 kcal/mol|
|  sn= 8 | S(rot)=       0.01302042 Eh      8.17 kcal/mol|
|  sn= 9 | S(rot)=       0.01290921 Eh      8.10 kcal/mol|
|  sn=10 | S(rot)=       0.01280974 Eh      8.04 kcal/mol|
|  sn=11 | S(rot)=       0.01271975 Eh      7.98 kcal/mol|
|  sn=12 | S(rot)=       0.01263759 Eh      7.93 kcal/mol|
 linear molecules ---------------------------------------
|  Dinfh | S(rot)=       0.00972023 Eh      6.10 kcal/mol|
|  Cinfv | S(rot)=       0.01037468 Eh      6.51 kcal/mol|
 --------------------------------------------------------


-------------------
GIBBS FREE ENERGY
-------------------

The Gibbs free energy is G = H - T*S

Total enthalpy                    ...   -662.80864599 Eh 
Total entropy correction          ...     -0.05016260 Eh    -31.48 kcal/mol
-----------------------------------------------------------------------
Final Gibbs free energy         ...   -662.85880859 Eh

For completeness - the Gibbs free energy minus the electronic energy
G-E(el)                           ...      0.13956656 Eh     87.58 kcal/mol


Maximum memory used throughout the entire PROP-calculation: 151.6 MB

--------------------------------
SUGGESTED CITATIONS FOR THIS RUN
--------------------------------

Below you find a list of papers that are relevant to this ORCA run
We neither can nor want to force you to cite these papers, but we appreciate if you do
You receive ORCA, which is the product of decades of hard work by many enthusiastic individuals, for free
The only thing we kindly ask in return is that you cite our papers,
We deeply appreciate it, if you show your appreciation for ORCA by not just citing the generic ORCA reference.

Please note that relegating all ORCA citations to the supporting information does *not* help us.
SI sections are not indexed - citations you put there will not count into any citation statistics
But we need these citations in order to attract the funding resources that allow us to do what we are doing

Therefore, if you are a happy ORCA user, please consider citing a few of the papers listed below in the main body of your paper

In addition to the list printed below, the program has created the file p1xs0.bibtex that contains the list in bibtex format
You can import this file easily into all common literature databanks and citation aid programs


List of essential papers. We consider these as the minimum necessary citations

  1. Neese, F.
     Software update: the ORCA program system, version 6.0
     WIRES Comput. Molec. Sci. 2025 15(1), e70019
     doi.org/10.1002/wcms.7019

List of papers to cite with high priority. The work reported in these papers was absolutely
necessary for this run to complete.
Our perspective: the developers of density functionals and basis sets usually get cited in chemistry papers
Good! But without the algorithms to do something with them, the functionals or basis sets would not do anything.
Hence, in our opinion, the algorithm design and method developments papers are equally worthy of getting cited

  1. Neese, F.
     An improvement of the resolution of the identity approximation for the formation of the Coulomb matrix
     J. Comp. Chem. 2003 24(14), 1740-1747
     doi.org/10.1002/jcc.10318
  2. Neese, F.; Wennmohs, F.; Hansen, A.; Becker, U.
     Efficient, approximate and parallel Hartree-Fock and hybrid DFT calculations. A 'chain-of-spheres' algorithm for the Hartree-Fock exchange
     Chem. Phys. 2009 356(1-3), 98-109
     doi.org/10.1016/j.chemphys.2008.10.036
  3. Grimme, S.; Antony, J.; Ehrlich, S.; Krieg, H.
     A consistent and accurate ab initio parametrization of density functional dispersion correction (DFT-D) for the 94 elements H-Pu
     J. Chem. Phys. 2010 132 , 154104
     doi.org/10.1063/1.3382344
  4. Grimme, S.; Ehrlich, S.; Goerigk, L.
     Effect of the damping function in dispersion corrected density functional theory
     J. Comput. Chem. 2011 32(7), 1456-1465
     doi.org/10.1002/jcc.21759
  5. Bykov, D.; Petrenko, T.; Izsak, R.; Kossmann, S.; Becker, U.; Valeev, E.; Neese, F.
     Efficient implementation of the analytic second derivatives of Hartree-Fock and hybrid DFT energies: a detailed analysis of different approximations
     Molec. Phys. 2015 113 , 1961-1977
     doi.org/10.1080/00268976.2015.1025114
  6. Garcia-Rates, M.; Neese, F.
     Efficient implementation of the analytical second derivatives of hartree-fock and hybrid DFT energies within the framework of the conductor-like polarizable continuum model
     J. Comput. Chem. 2019 40 , 1816-1828
     doi.org/10.1002/jcc.25833
  7. Garcia-Rates, M.; Neese, F.
     Effect of the Solute Cavity on the Solvation Energy and its Derivatives within the Framework of the Gaussian Charge Scheme
     J. Comput. Chem. 2020 41 , 922-939
     doi.org/10.1002/jcc.26139
  8. Helmich-Paris, B.; de Souza, B.; Neese, F.; Izsák, R.
     An improved chain of spheres for exchange algorithm
     J. Chem. Phys. 2021 155(10), 104109
     doi.org/10.1063/5.0058766
  9. Neese, F.
     The SHARK Integral Generation and Digestion System
     J. Comp. Chem. 2022 44(3), 381
     doi.org/10.1002/jcc.26942

List of suggested additional citations. These are papers that are important in the 'surrounding' of 
of this run, or papers that preceded the highly important papers. If you like your results we are grateful for a citation.

  1. Izsak, R.; Neese, F.
     An overlap fitted chain of spheres exchange method
     J. Chem. Phys. 2011 135 , 144105
     doi.org/10.1063/1.3646921
  2. Izsak, R.; Hansen, A.; Neese, F.
     The resolution of identity and chain of spheres approximations for the LPNO-CCSD singles Fock term
     Molec. Phys. 2012 110 , 2413-2417
     doi.org/10.1080/00268976.2012.687466
  3. Neese, F.
     The ORCA program system
     WIRES Comput. Molec. Sci. 2012 2(1), 73-78
     doi.org/10.1002/wcms.81
  4. Izsak, R.; Neese, F.; Klopper, W.
     Robust fitting techniques in the chain of spheres approximation to the Fock exchange: The role of the complementary space
     J. Chem. Phys. 2013 139 , 
     doi.org/10.1063/1.4819264
  5. Neese, F.
     Software update: the ORCA program system, version 4.0
     WIRES Comput. Molec. Sci. 2018 8(1), 1-6
     doi.org/10.1002/wcms.1327
  6. Neese, F.; Wennmohs, F.; Becker, U.; Riplinger, C.
     The ORCA quantum chemistry program package
     J. Chem. Phys. 2020 152(22), 224108
     doi.org/10.1063/5.0004608
  7. Neese, F.
     Software update: The ORCA program system—Version 5.0
     WIRES Comput. Molec. Sci. 2022 12(1), e1606
     doi.org/10.1002/wcms.1606

List of optional additional citations

  1. Neese, F.
     Approximate second-order SCF convergence for spin unrestricted wavefunctions
     Chem. Phys. Lett. 2000 325(1-3), 93-98
     doi.org/10.1016/s0009-2614(00)00662-x

Timings for individual modules:

Sum of individual times          ...     2482.894 sec (=  41.382 min)
Startup calculation              ...       92.477 sec (=   1.541 min)   3.7 %
SCF iterations                   ...      585.293 sec (=   9.755 min)  23.6 %
Property integrals               ...      450.882 sec (=   7.515 min)  18.2 %
SCF Response                     ...      508.295 sec (=   8.472 min)  20.5 %
Property calculations            ...      590.016 sec (=   9.834 min)  23.8 %
SCF Gradient evaluation          ...      255.877 sec (=   4.265 min)  10.3 %
Geometry relaxation              ...        0.054 sec (=   0.001 min)   0.0 %
                             ****ORCA TERMINATED NORMALLY****
TOTAL RUN TIME: 0 days 0 hours 41 minutes 29 seconds 383 msec
